 Gaussian 16, Revision C.01,
 Gaussian 16:  ES64L-G16RevC.01  3-Jul-2019

 --------------------------------------------------------
 #p b3lyp/6-31+g(d,p) nosymm output=wfn force geom=notest
 --------------------------------------------------------

 --------------------------------
 10k_random_sample_set_5000K05001
 --------------------------------
 Symbolic Z-matrix:
 Charge =  0 Multiplicity = 1

                          Input orientation:
 ---------------------------------------------------------------------
 Center     Atomic      Atomic             Coordinates (Angstroms)
 Number     Number       Type             X           Y           Z
 ---------------------------------------------------------------------
      1          6           0        0.140000    2.699000    0.901000
      2          8           0       -0.488000    3.260000    1.885000
      3          7           0        1.162000    1.989000    1.437000
      4          7           0        0.598000    3.309000   -0.214000
      5          1           0        1.071000    3.983000    0.433000
      6          1           0        1.449000    3.010000   -0.228000
      7          1           0        1.195000    1.960000    2.446000
      8          1           0        1.858000    2.007000    1.034000
 ---------------------------------------------------------------------

 SCF Done:  E(RB3LYP) =  -225.081384781     A.U. after   14 cycles

 Alpha  occ. eigenvalues --  -19.13671 -14.37023 -14.35738 -10.34554  -1.09378
 Alpha  occ. eigenvalues --   -0.97918  -0.93435  -0.65060  -0.59731  -0.56560
 Alpha  occ. eigenvalues --   -0.50861  -0.43359  -0.39632  -0.33421  -0.29156
 Alpha  occ. eigenvalues --   -0.26323
 Alpha virt. eigenvalues --   -0.08016  -0.00448   0.03256   0.04820   0.05672
 Alpha virt. eigenvalues --    0.09394   0.09555   0.09882   0.12004   0.12885
 Alpha virt. eigenvalues --    0.15051   0.16176   0.18638   0.21446   0.23426

 Mulliken charges:
               1
     1  C    0.415840
     2  O   -0.505476
     3  N   -0.519391
     4  N   -0.469383
     5  H    0.274884
     6  H    0.246038
     7  H    0.325784
     8  H    0.231704
 Sum of Mulliken charges =  -0.00000

 Dipole moment (field-independent basis, Debye):
    X=              4.5979    Y=             -1.0018    Z=             -0.3435  Tot=              4.7183
 Quadrupole moment (field-independent basis, Debye-Ang):
   XX=            -18.7469   YY=            -31.1924   ZZ=            -27.5374
   XY=             14.7765   XZ=              5.8595   YZ=             -2.2535

 Normal termination of Gaussian 16 at Sat Jun  3 04:40:52 2023.
