 Gaussian 09, Revision D.01,
 Gaussian 09:  ES64L-G09RevD.01 24-Apr-2013

 --------------------------------------------
 #p B3LYP/AUG-cc-pVTZ nosymm output=wfn force
 --------------------------------------------

 --------------
 WATER_MONOMER0
 --------------
 Symbolic Z-matrix:
 Charge =  0 Multiplicity = 1

                          Input orientation:
 ---------------------------------------------------------------------
 Center     Atomic      Atomic             Coordinates (Angstroms)
 Number     Number       Type             X           Y           Z
 ---------------------------------------------------------------------
      1          8           0        0.000000    0.000000    0.000000
      2          1           0        0.998090    0.000000    0.000000
      3          1           0       -0.098583    1.078463    0.000000
 ---------------------------------------------------------------------

 SCF Done:  E(RB3LYP) =  -76.4535271067     A.U. after    9 cycles

 Alpha  occ. eigenvalues --  -19.15532  -0.99717  -0.49556  -0.41047  -0.32055
 Alpha virt. eigenvalues --   -0.03451   0.01596   0.06746   0.09549   0.09724
 Alpha virt. eigenvalues --    0.10512   0.14537   0.16801   0.19252   0.20684
 Alpha virt. eigenvalues --    0.21436   0.30031   0.30672   0.32878   0.47045

 Mulliken charges:
               1
     1  O   -0.465480
     2  H    0.207460
     3  H    0.258019
 Sum of Mulliken charges =   0.00000

 Dipole moment (field-independent basis, Debye):
    X=              1.3362    Y=              1.5253    Z=              0.0000  Tot=              2.0278
 Quadrupole moment (field-independent basis, Debye-Ang):
   XX=             -5.3112   YY=             -5.1244   ZZ=             -7.9601
   XY=             -0.4487   XZ=              0.0000   YZ=              0.0000

 Normal termination of Gaussian 09 at Fri Jul  8 18:12:03 2022.
