 Gaussian 09, Revision D.01,
 Gaussian 09:  ES64L-G09RevD.01 24-Apr-2013

 -----------------------------------------------------------
 #p B3LYP/AUG-cc-pVTZ SCRF=(Solvent=Water) nosymm output=wfn
 -----------------------------------------------------------

 -----------------
 WATER_MONOMER0001
 -----------------
 Symbolic Z-matrix:
 Charge =  0 Multiplicity = 1

                          Input orientation:
 ---------------------------------------------------------------------
 Center     Atomic      Atomic             Coordinates (Angstroms)
 Number     Number       Type             X           Y           Z
 ---------------------------------------------------------------------
      1          8           0       -0.033487   -0.466898   -0.004249
      2          1           0       -0.504282    0.202632    0.566948
      3          1           0        0.537770    0.264266   -0.562699
 ---------------------------------------------------------------------

 SCF Done:  E(RB3LYP) =  -76.4605408187     A.U. after    8 cycles

 Alpha  occ. eigenvalues --  -19.15418  -0.99698  -0.49431  -0.41321  -0.32390
 Alpha virt. eigenvalues --   -0.02522   0.02459   0.06991   0.08751   0.09284
 Alpha virt. eigenvalues --    0.11260   0.13726   0.17731   0.19974   0.20970
 Alpha virt. eigenvalues --    0.21253   0.31014   0.31894   0.34021   0.46969

 Mulliken charges:
               1
     1  O   -0.536614
     2  H    0.241913
     3  H    0.294701
 Sum of Mulliken charges =   0.00000

 Dipole moment (field-independent basis, Debye):
    X=              0.1426    Y=              2.3942    Z=              0.0535  Tot=              2.3991
 Quadrupole moment (field-independent basis, Debye-Ang):
   XX=             -6.4806   YY=             -7.7366   ZZ=             -6.2040
   XY=              0.0721   XZ=             -1.6772   YZ=             -0.0534

 Normal termination of Gaussian 09 at Wed Dec 15 20:44:19 2021.
