 Gaussian 16, Revision C.01,
 Gaussian 16:  ES64L-G16RevC.01  3-Jul-2019

 --------------------------------------------------------
 #p b3lyp/6-31+g(d,p) nosymm output=wfn force geom=notest
 --------------------------------------------------------

 --------------------------------
 10k_random_sample_set_5000K05000
 --------------------------------
 Symbolic Z-matrix:
 Charge =  0 Multiplicity = 1

                          Input orientation:
 ---------------------------------------------------------------------
 Center     Atomic      Atomic             Coordinates (Angstroms)
 Number     Number       Type             X           Y           Z
 ---------------------------------------------------------------------
      1          6           0       -2.933000    0.927000    0.522000
      2          8           0       -3.410000    0.385000    1.394000
      3          7           0       -2.288000    2.072000    0.747000
      4          7           0       -3.109000    0.284000   -0.800000
      5          1           0       -3.781000   -0.228000   -0.929000
      6          1           0       -2.694000    0.431000   -1.683000
      7          1           0       -2.316000    2.688000    1.509000
      8          1           0       -1.561000    1.991000   -0.188000
 ---------------------------------------------------------------------

 SCF Done:  E(RB3LYP) =  -225.176204430     A.U. after   12 cycles

 Alpha  occ. eigenvalues --  -19.11603 -14.37496 -14.33533 -10.32184  -1.10113
 Alpha  occ. eigenvalues --   -0.91976  -0.89822  -0.64095  -0.55767  -0.52292
 Alpha  occ. eigenvalues --   -0.50184  -0.44962  -0.41473  -0.29093  -0.27482
 Alpha  occ. eigenvalues --   -0.26160
 Alpha virt. eigenvalues --   -0.02151   0.02287   0.03526   0.05210   0.06761
 Alpha virt. eigenvalues --    0.06939   0.09038   0.10566   0.12699   0.12940
 Alpha virt. eigenvalues --    0.15005   0.16209   0.19234   0.22334   0.23604

 Mulliken charges:
               1
     1  C    0.559373
     2  O   -0.469160
     3  N   -0.553457
     4  N   -0.684543
     5  H    0.284606
     6  H    0.275470
     7  H    0.324765
     8  H    0.262946
 Sum of Mulliken charges =  -0.00000

 Dipole moment (field-independent basis, Debye):
    X=              1.6353    Y=              1.9357    Z=             -2.5551  Tot=              3.5986
 Quadrupole moment (field-independent basis, Debye-Ang):
   XX=            -32.7176   YY=            -19.6672   ZZ=            -23.7680
   XY=             -1.9984   XZ=              8.8154   YZ=              3.0489

 Normal termination of Gaussian 16 at Sat Jun  3 04:40:52 2023.
