 Gaussian 16, Revision C.01,
 Gaussian 16:  ES64L-G16RevC.01  3-Jul-2019

 --------------------------------------------------------
 #p b3lyp/6-31+g(d,p) nosymm output=wfn force geom=notest
 --------------------------------------------------------

 -----------------
 WATER_MONOMER0002
 -----------------
 Symbolic Z-matrix:
 Charge =  0 Multiplicity = 1

                          Input orientation:
 ---------------------------------------------------------------------
 Center     Atomic      Atomic             Coordinates (Angstroms)
 Number     Number       Type             X           Y           Z
 ---------------------------------------------------------------------
      1          8           0        0.246263    0.275732    0.224453
      2          1           0       -0.659748   -0.034240    0.331491
      3          1           0        0.413485   -0.241493   -0.555944
 ---------------------------------------------------------------------

 SCF Done:  E(RB3LYP) =  -76.4305991074     A.U. after   10 cycles

 Alpha  occ. eigenvalues --  -19.17216  -1.03462  -0.52391  -0.41573  -0.32376
 Alpha virt. eigenvalues --    0.02217   0.11918   0.15482   0.15575   0.19720
 Alpha virt. eigenvalues --    0.26038   0.88215   1.00711   1.08180   1.11112
 Alpha virt. eigenvalues --    1.16040   1.25516   1.45374   1.53002   1.59491

 Mulliken charges:
               1
     1  O   -0.679903
     2  H    0.339767
     3  H    0.340136
 Sum of Mulliken charges =  -0.00000

 Dipole moment (field-independent basis, Debye):
    X=             -1.3324    Y=             -1.5029    Z=             -1.2291  Tot=              2.3547
 Quadrupole moment (field-independent basis, Debye-Ang):
   XX=             -6.0559   YY=             -7.6792   ZZ=             -6.5966
   XY=             -0.2517   XZ=             -1.3516   YZ=              0.3550

 Normal termination of Gaussian 16 at Tue May  7 15:36:25 2024.
