 Gaussian 16, Revision C.01,
 Gaussian 16:  ES64L-G16RevC.01  3-Jul-2019

 --------------------------------------------------------
 #p b3lyp/6-31+g(d,p) nosymm output=wfn force geom=notest
 --------------------------------------------------------

 -----------------
 WATER_MONOMER0000
 -----------------
 Symbolic Z-matrix:
 Charge =  0 Multiplicity = 1

                          Input orientation:
 ---------------------------------------------------------------------
 Center     Atomic      Atomic             Coordinates (Angstroms)
 Number     Number       Type             X           Y           Z
 ---------------------------------------------------------------------
      1          8           0       -0.033487   -0.466898   -0.004249
      2          1           0       -0.504282    0.202632    0.566948
      3          1           0        0.537770    0.264266   -0.562699
 ---------------------------------------------------------------------

 SCF Done:  E(RB3LYP) =  -76.4217106875     A.U. after   10 cycles

 Alpha  occ. eigenvalues --  -19.18377  -1.00044  -0.49742  -0.40813  -0.31796
 Alpha virt. eigenvalues --    0.00816   0.10002   0.15503   0.15545   0.17718
 Alpha virt. eigenvalues --    0.23822   0.83294   0.94510   1.10961   1.10967
 Alpha virt. eigenvalues --    1.15790   1.27306   1.47161   1.52796   1.60005

 Mulliken charges:
               1
     1  O   -0.679082
     2  H    0.342907
     3  H    0.336175
 Sum of Mulliken charges =   0.00000

 Dipole moment (field-independent basis, Debye):
    X=              0.1189    Y=              2.3866    Z=              0.0787  Tot=              2.3909
 Quadrupole moment (field-independent basis, Debye-Ang):
   XX=             -6.5273   YY=             -7.7674   ZZ=             -6.2577
   XY=              0.0665   XZ=             -1.6318   YZ=             -0.0495

 Normal termination of Gaussian 16 at Tue May  7 15:36:25 2024.
