 Gaussian 16, Revision C.01,
 Gaussian 16:  ES64L-G16RevC.01  3-Jul-2019

 --------------------------------------------------------
 #p b3lyp/6-31+g(d,p) nosymm output=wfn force geom=notest
 --------------------------------------------------------

 -----------------
 WATER_MONOMER0003
 -----------------
 Symbolic Z-matrix:
 Charge =  0 Multiplicity = 1

                          Input orientation:
 ---------------------------------------------------------------------
 Center     Atomic      Atomic             Coordinates (Angstroms)
 Number     Number       Type             X           Y           Z
 ---------------------------------------------------------------------
      1          8           0        0.379916   -0.089422    0.216002
      2          1           0       -0.554354   -0.197974    0.433626
      3          1           0        0.174438    0.287396   -0.649628
 ---------------------------------------------------------------------

 SCF Done:  E(RB3LYP) =  -76.4294884980     A.U. after   10 cycles

 Alpha  occ. eigenvalues --  -19.17422  -1.03271  -0.51599  -0.41971  -0.32357
 Alpha virt. eigenvalues --    0.02029   0.11863   0.15479   0.15579   0.19263
 Alpha virt. eigenvalues --    0.25910   0.87277   0.99958   1.08549   1.11063
 Alpha virt. eigenvalues --    1.16524   1.26497   1.43551   1.53574   1.58667

 Mulliken charges:
               1
     1  O   -0.672612
     2  H    0.336324
     3  H    0.336289
 Sum of Mulliken charges =   0.00000

 Dipole moment (field-independent basis, Debye):
    X=             -2.0363    Y=              0.4790    Z=             -1.1570  Tot=              2.3905
 Quadrupole moment (field-independent basis, Debye-Ang):
   XX=             -6.8842   YY=             -7.4952   ZZ=             -6.0587
   XY=              0.4805   XZ=             -1.0644   YZ=             -0.8024

 Normal termination of Gaussian 16 at Tue May  7 15:36:25 2024.
