 Gaussian 16, Revision C.01,
 Gaussian 16:  ES64L-G16RevC.01  3-Jul-2019

 --------------------------------------------------------
 #p b3lyp/6-31+g(d,p) nosymm output=wfn force geom=notest
 --------------------------------------------------------

 -----------------
 WATER_MONOMER0001
 -----------------
 Symbolic Z-matrix:
 Charge =  0 Multiplicity = 1

                          Input orientation:
 ---------------------------------------------------------------------
 Center     Atomic      Atomic             Coordinates (Angstroms)
 Number     Number       Type             X           Y           Z
 ---------------------------------------------------------------------
      1          8           0        0.145102    0.246781   -0.322122
      2          1           0       -0.745031    0.036602   -0.092337
      3          1           0        0.599930   -0.283383    0.414459
 ---------------------------------------------------------------------

 SCF Done:  E(RB3LYP) =  -76.4299478040     A.U. after   10 cycles

 Alpha  occ. eigenvalues --  -19.17434  -1.02351  -0.52180  -0.40862  -0.32164
 Alpha virt. eigenvalues --    0.01945   0.11430   0.15493   0.15558   0.19135
 Alpha virt. eigenvalues --    0.25357   0.86900   0.99492   1.08777   1.11114
 Alpha virt. eigenvalues --    1.15358   1.25176   1.47825   1.52223   1.60473

 Mulliken charges:
               1
     1  O   -0.689031
     2  H    0.345752
     3  H    0.343279
 Sum of Mulliken charges =  -0.00000

 Dipole moment (field-independent basis, Debye):
    X=             -0.8431    Y=             -1.3230    Z=              1.7231  Tot=              2.3303
 Quadrupole moment (field-independent basis, Debye-Ang):
   XX=             -5.1893   YY=             -7.6880   ZZ=             -7.4260
   XY=             -0.5634   XZ=              0.9119   YZ=             -0.3113

 Normal termination of Gaussian 16 at Tue May  7 15:36:25 2024.
